file 45733 1733728199                                           
version 3
run UDP-0-20241209-12:39:00-9304
attr configname UDP
attr datetime 20241209-12:39:00
attr datetimef 20241209-123900
attr experiment UDP
attr inifile omnetpp.ini
attr iterationvars ""
attr iterationvarsd ""
attr iterationvarsf ""
attr measurement ""
attr network manets
attr processid 9304
attr repetition 0
attr replication #0
attr resultdir results
attr runnumber 0
attr seedset 0
config image-path ../../inet4.5/images
config **.nodoFijo1.numApps 1
config **.nodoFijo2.numApps 1
config **.nodoFijo1.app[0].typename UdpBasicApp
config **.nodoFijo1.app[0].destAddresses "\"nodoFijo2\""
config **.nodoFijo1.app[0].destPort 1000
config **.nodoFijo1.app[0].startTime 5s
config **.nodoFijo1.app[0].messageLength 50B
config **.nodoFijo1.app[0].sendInterval 0.25s
config **.nodoFijo2.app[0].typename UdpEchoApp
config **.nodoFijo2.app[0].localPort 1000
config network manets
config seed-0-mt 4
config **.wlan[*].typename AckingWirelessInterface
config **.wlan[*].bitrate 2Mbps
config **.wlan[*].mac.headerLength 20B
config **.wlan[*].radio.typename UnitDiskRadio
config **.wlan[*].radio.transmitter.headerLength 96b
config **.wlan[*].radio.transmitter.communicationRange 400m
config **.wlan[*].radio.transmitter.interferenceRange 0m
config **.wlan[*].radio.transmitter.detectionRange 0m
config **.wlan[*].radio.receiver.ignoreInterference true
config *.n 7
config **.mobility.initFromDisplayString false
config **.nodoMovil[*].mobility.typename MassMobility
config **.nodoMovil[*].mobility.speed 1mps
config **.mobility.constraintAreaMinZ 0m
config **.mobility.constraintAreaMaxZ 0m
config **.mobility.constraintAreaMinX 0m
config **.mobility.constraintAreaMinY 0m
config **.mobility.constraintAreaMaxX 1200m
config **.mobility.constraintAreaMaxY 600m
config **.nodoMovil[*].mobility.changeInterval "normal(5s, 0.1s)"
config **.nodoMovil[*].mobility.changeAngleBy "normal(0deg, 30deg)"
config **.nodoFijo1.mobility.initialX 0m
config **.nodoFijo1.mobility.initialY 300m
config **.nodoFijo2.mobility.initialX 1200m
config **.nodoFijo2.mobility.initialY 300m
config **.dataLinkVisualizer.displayLinks true
config **.nodoMovil*.wlan[*].radio.displayCommunicationRange true
config **.networkRouteVisualizer.displayRoutes true

vector 0 manets.nodoFijo1.wlan[0].queue queueLength:vector ETV
attr autoWarmupFilter false
attr interpolationmode sample-hold
attr recordingmode vector
attr source "warmup(atomic(constant0(packetPushEnded) + count(packetPushStarted) - count(packetPulled) - count(packetRemoved) - count(packetDropped)))"
attr title "queue length"
attr unit pk
vector 1 manets.nodoFijo1.wlan[0].queue queueBitLength:vector ETV
attr autoWarmupFilter false
attr interpolationmode sample-hold
attr recordingmode vector
attr source "warmup(atomic(constant0(packetPushEnded) + sum(packetLength(packetPushStarted)) - sum(packetLength(packetPulled)) - sum(packetLength(packetRemoved)) - sum(packetLength(packetDropped))))"
attr title "queue bit length"
attr unit b
vector 2 manets.nodoFijo1.udp passedUpPk:vector(count) ETV
attr interpolationmode none
attr recordingmode vector(count)
attr source packetSentToUpper
attr title "packets passed up, count"
vector 3 manets.nodoFijo1.udp droppedPkWrongPort:vector(count) ETV
attr interpolationmode none
attr recordingmode vector(count)
attr source packetDropReasonIsNoPortFound(packetDropped)
attr title "packets dropped (wrong port), count"
vector 4 manets.nodoFijo1.udp droppedPkBadChecksum:vector(count) ETV
attr interpolationmode none
attr recordingmode vector(count)
attr source packetDropReasonIsIncorrectlyReceived(packetDropped)
attr title "packets dropped (checksum error), count"
vector 5 manets.nodoFijo2.wlan[0].queue queueLength:vector ETV
attr autoWarmupFilter false
attr interpolationmode sample-hold
attr recordingmode vector
attr source "warmup(atomic(constant0(packetPushEnded) + count(packetPushStarted) - count(packetPulled) - count(packetRemoved) - count(packetDropped)))"
attr title "queue length"
attr unit pk
vector 6 manets.nodoFijo2.wlan[0].queue queueBitLength:vector ETV
attr autoWarmupFilter false
attr interpolationmode sample-hold
attr recordingmode vector
attr source "warmup(atomic(constant0(packetPushEnded) + sum(packetLength(packetPushStarted)) - sum(packetLength(packetPulled)) - sum(packetLength(packetRemoved)) - sum(packetLength(packetDropped))))"
attr title "queue bit length"
attr unit b
vector 7 manets.nodoFijo2.udp passedUpPk:vector(count) ETV
attr interpolationmode none
attr recordingmode vector(count)
attr source packetSentToUpper
attr title "packets passed up, count"
vector 8 manets.nodoFijo2.udp droppedPkWrongPort:vector(count) ETV
attr interpolationmode none
attr recordingmode vector(count)
attr source packetDropReasonIsNoPortFound(packetDropped)
attr title "packets dropped (wrong port), count"
vector 9 manets.nodoFijo2.udp droppedPkBadChecksum:vector(count) ETV
attr interpolationmode none
attr recordingmode vector(count)
attr source packetDropReasonIsIncorrectlyReceived(packetDropped)
attr title "packets dropped (checksum error), count"
vector 10 manets.nodoMovil[0].wlan[0].queue queueLength:vector ETV
attr autoWarmupFilter false
attr interpolationmode sample-hold
attr recordingmode vector
attr source "warmup(atomic(constant0(packetPushEnded) + count(packetPushStarted) - count(packetPulled) - count(packetRemoved) - count(packetDropped)))"
attr title "queue length"
attr unit pk
vector 11 manets.nodoMovil[0].wlan[0].queue queueBitLength:vector ETV
attr autoWarmupFilter false
attr interpolationmode sample-hold
attr recordingmode vector
attr source "warmup(atomic(constant0(packetPushEnded) + sum(packetLength(packetPushStarted)) - sum(packetLength(packetPulled)) - sum(packetLength(packetRemoved)) - sum(packetLength(packetDropped))))"
attr title "queue bit length"
attr unit b
vector 12 manets.nodoMovil[0].udp passedUpPk:vector(count) ETV
attr interpolationmode none
attr recordingmode vector(count)
attr source packetSentToUpper
attr title "packets passed up, count"
vector 13 manets.nodoMovil[0].udp droppedPkWrongPort:vector(count) ETV
attr interpolationmode none
attr recordingmode vector(count)
attr source packetDropReasonIsNoPortFound(packetDropped)
attr title "packets dropped (wrong port), count"
vector 14 manets.nodoMovil[0].udp droppedPkBadChecksum:vector(count) ETV
attr interpolationmode none
attr recordingmode vector(count)
attr source packetDropReasonIsIncorrectlyReceived(packetDropped)
attr title "packets dropped (checksum error), count"
vector 15 manets.nodoMovil[1].wlan[0].queue queueLength:vector ETV
attr autoWarmupFilter false
attr interpolationmode sample-hold
attr recordingmode vector
attr source "warmup(atomic(constant0(packetPushEnded) + count(packetPushStarted) - count(packetPulled) - count(packetRemoved) - count(packetDropped)))"
attr title "queue length"
attr unit pk
vector 16 manets.nodoMovil[1].wlan[0].queue queueBitLength:vector ETV
attr autoWarmupFilter false
attr interpolationmode sample-hold
attr recordingmode vector
attr source "warmup(atomic(constant0(packetPushEnded) + sum(packetLength(packetPushStarted)) - sum(packetLength(packetPulled)) - sum(packetLength(packetRemoved)) - sum(packetLength(packetDropped))))"
attr title "queue bit length"
attr unit b
vector 17 manets.nodoMovil[1].udp passedUpPk:vector(count) ETV
attr interpolationmode none
attr recordingmode vector(count)
attr source packetSentToUpper
attr title "packets passed up, count"
vector 18 manets.nodoMovil[1].udp droppedPkWrongPort:vector(count) ETV
attr interpolationmode none
attr recordingmode vector(count)
attr source packetDropReasonIsNoPortFound(packetDropped)
attr title "packets dropped (wrong port), count"
vector 19 manets.nodoMovil[1].udp droppedPkBadChecksum:vector(count) ETV
attr interpolationmode none
attr recordingmode vector(count)
attr source packetDropReasonIsIncorrectlyReceived(packetDropped)
attr title "packets dropped (checksum error), count"
vector 20 manets.nodoMovil[2].wlan[0].queue queueLength:vector ETV
attr autoWarmupFilter false
attr interpolationmode sample-hold
attr recordingmode vector
attr source "warmup(atomic(constant0(packetPushEnded) + count(packetPushStarted) - count(packetPulled) - count(packetRemoved) - count(packetDropped)))"
attr title "queue length"
attr unit pk
vector 21 manets.nodoMovil[2].wlan[0].queue queueBitLength:vector ETV
attr autoWarmupFilter false
attr interpolationmode sample-hold
attr recordingmode vector
attr source "warmup(atomic(constant0(packetPushEnded) + sum(packetLength(packetPushStarted)) - sum(packetLength(packetPulled)) - sum(packetLength(packetRemoved)) - sum(packetLength(packetDropped))))"
attr title "queue bit length"
attr unit b
vector 22 manets.nodoMovil[2].udp passedUpPk:vector(count) ETV
attr interpolationmode none
attr recordingmode vector(count)
attr source packetSentToUpper
attr title "packets passed up, count"
vector 23 manets.nodoMovil[2].udp droppedPkWrongPort:vector(count) ETV
attr interpolationmode none
attr recordingmode vector(count)
attr source packetDropReasonIsNoPortFound(packetDropped)
attr title "packets dropped (wrong port), count"
vector 24 manets.nodoMovil[2].udp droppedPkBadChecksum:vector(count) ETV
attr interpolationmode none
attr recordingmode vector(count)
attr source packetDropReasonIsIncorrectlyReceived(packetDropped)
attr title "packets dropped (checksum error), count"
vector 25 manets.nodoMovil[3].wlan[0].queue queueLength:vector ETV
attr autoWarmupFilter false
attr interpolationmode sample-hold
attr recordingmode vector
attr source "warmup(atomic(constant0(packetPushEnded) + count(packetPushStarted) - count(packetPulled) - count(packetRemoved) - count(packetDropped)))"
attr title "queue length"
attr unit pk
vector 26 manets.nodoMovil[3].wlan[0].queue queueBitLength:vector ETV
attr autoWarmupFilter false
attr interpolationmode sample-hold
attr recordingmode vector
attr source "warmup(atomic(constant0(packetPushEnded) + sum(packetLength(packetPushStarted)) - sum(packetLength(packetPulled)) - sum(packetLength(packetRemoved)) - sum(packetLength(packetDropped))))"
attr title "queue bit length"
attr unit b
vector 27 manets.nodoMovil[3].udp passedUpPk:vector(count) ETV
attr interpolationmode none
attr recordingmode vector(count)
attr source packetSentToUpper
attr title "packets passed up, count"
vector 28 manets.nodoMovil[3].udp droppedPkWrongPort:vector(count) ETV
attr interpolationmode none
attr recordingmode vector(count)
attr source packetDropReasonIsNoPortFound(packetDropped)
attr title "packets dropped (wrong port), count"
vector 29 manets.nodoMovil[3].udp droppedPkBadChecksum:vector(count) ETV
attr interpolationmode none
attr recordingmode vector(count)
attr source packetDropReasonIsIncorrectlyReceived(packetDropped)
attr title "packets dropped (checksum error), count"
vector 30 manets.nodoMovil[4].wlan[0].queue queueLength:vector ETV
attr autoWarmupFilter false
attr interpolationmode sample-hold
attr recordingmode vector
attr source "warmup(atomic(constant0(packetPushEnded) + count(packetPushStarted) - count(packetPulled) - count(packetRemoved) - count(packetDropped)))"
attr title "queue length"
attr unit pk
vector 31 manets.nodoMovil[4].wlan[0].queue queueBitLength:vector ETV
attr autoWarmupFilter false
attr interpolationmode sample-hold
attr recordingmode vector
attr source "warmup(atomic(constant0(packetPushEnded) + sum(packetLength(packetPushStarted)) - sum(packetLength(packetPulled)) - sum(packetLength(packetRemoved)) - sum(packetLength(packetDropped))))"
attr title "queue bit length"
attr unit b
vector 32 manets.nodoMovil[4].udp passedUpPk:vector(count) ETV
attr interpolationmode none
attr recordingmode vector(count)
attr source packetSentToUpper
attr title "packets passed up, count"
vector 33 manets.nodoMovil[4].udp droppedPkWrongPort:vector(count) ETV
attr interpolationmode none
attr recordingmode vector(count)
attr source packetDropReasonIsNoPortFound(packetDropped)
attr title "packets dropped (wrong port), count"
vector 34 manets.nodoMovil[4].udp droppedPkBadChecksum:vector(count) ETV
attr interpolationmode none
attr recordingmode vector(count)
attr source packetDropReasonIsIncorrectlyReceived(packetDropped)
attr title "packets dropped (checksum error), count"
vector 35 manets.nodoMovil[5].wlan[0].queue queueLength:vector ETV
attr autoWarmupFilter false
attr interpolationmode sample-hold
attr recordingmode vector
attr source "warmup(atomic(constant0(packetPushEnded) + count(packetPushStarted) - count(packetPulled) - count(packetRemoved) - count(packetDropped)))"
attr title "queue length"
attr unit pk
vector 36 manets.nodoMovil[5].wlan[0].queue queueBitLength:vector ETV
attr autoWarmupFilter false
attr interpolationmode sample-hold
attr recordingmode vector
attr source "warmup(atomic(constant0(packetPushEnded) + sum(packetLength(packetPushStarted)) - sum(packetLength(packetPulled)) - sum(packetLength(packetRemoved)) - sum(packetLength(packetDropped))))"
attr title "queue bit length"
attr unit b
vector 37 manets.nodoMovil[5].udp passedUpPk:vector(count) ETV
attr interpolationmode none
attr recordingmode vector(count)
attr source packetSentToUpper
attr title "packets passed up, count"
vector 38 manets.nodoMovil[5].udp droppedPkWrongPort:vector(count) ETV
attr interpolationmode none
attr recordingmode vector(count)
attr source packetDropReasonIsNoPortFound(packetDropped)
attr title "packets dropped (wrong port), count"
vector 39 manets.nodoMovil[5].udp droppedPkBadChecksum:vector(count) ETV
attr interpolationmode none
attr recordingmode vector(count)
attr source packetDropReasonIsIncorrectlyReceived(packetDropped)
attr title "packets dropped (checksum error), count"
vector 40 manets.nodoMovil[6].wlan[0].queue queueLength:vector ETV
attr autoWarmupFilter false
attr interpolationmode sample-hold
attr recordingmode vector
attr source "warmup(atomic(constant0(packetPushEnded) + count(packetPushStarted) - count(packetPulled) - count(packetRemoved) - count(packetDropped)))"
attr title "queue length"
attr unit pk
vector 41 manets.nodoMovil[6].wlan[0].queue queueBitLength:vector ETV
attr autoWarmupFilter false
attr interpolationmode sample-hold
attr recordingmode vector
attr source "warmup(atomic(constant0(packetPushEnded) + sum(packetLength(packetPushStarted)) - sum(packetLength(packetPulled)) - sum(packetLength(packetRemoved)) - sum(packetLength(packetDropped))))"
attr title "queue bit length"
attr unit b
vector 42 manets.nodoMovil[6].udp passedUpPk:vector(count) ETV
attr interpolationmode none
attr recordingmode vector(count)
attr source packetSentToUpper
attr title "packets passed up, count"
vector 43 manets.nodoMovil[6].udp droppedPkWrongPort:vector(count) ETV
attr interpolationmode none
attr recordingmode vector(count)
attr source packetDropReasonIsNoPortFound(packetDropped)
attr title "packets dropped (wrong port), count"
vector 44 manets.nodoMovil[6].udp droppedPkBadChecksum:vector(count) ETV
attr interpolationmode none
attr recordingmode vector(count)
attr source packetDropReasonIsIncorrectlyReceived(packetDropped)
attr title "packets dropped (checksum error), count"
vector 45 manets.nodoFijo1.wlan[0].radio radioMode:vector ETV
attr interpolationmode sample-hold
attr recordingmode vector
attr source radioModeChanged
attr title "Radio mode"
vector 46 manets.nodoFijo2.wlan[0].radio radioMode:vector ETV
attr interpolationmode sample-hold
attr recordingmode vector
attr source radioModeChanged
attr title "Radio mode"
vector 47 manets.nodoMovil[0].wlan[0].radio radioMode:vector ETV
attr interpolationmode sample-hold
attr recordingmode vector
attr source radioModeChanged
attr title "Radio mode"
vector 48 manets.nodoMovil[1].wlan[0].radio radioMode:vector ETV
attr interpolationmode sample-hold
attr recordingmode vector
attr source radioModeChanged
attr title "Radio mode"
vector 49 manets.nodoMovil[2].wlan[0].radio radioMode:vector ETV
attr interpolationmode sample-hold
attr recordingmode vector
attr source radioModeChanged
attr title "Radio mode"
vector 50 manets.nodoMovil[3].wlan[0].radio radioMode:vector ETV
attr interpolationmode sample-hold
attr recordingmode vector
attr source radioModeChanged
attr title "Radio mode"
vector 51 manets.nodoMovil[4].wlan[0].radio radioMode:vector ETV
attr interpolationmode sample-hold
attr recordingmode vector
attr source radioModeChanged
attr title "Radio mode"
vector 52 manets.nodoMovil[5].wlan[0].radio radioMode:vector ETV
attr interpolationmode sample-hold
attr recordingmode vector
attr source radioModeChanged
attr title "Radio mode"
vector 53 manets.nodoMovil[6].wlan[0].radio radioMode:vector ETV
attr interpolationmode sample-hold
attr recordingmode vector
attr source radioModeChanged
attr title "Radio mode"
vector 54 manets.nodoFijo1.wlan[0].radio receptionState:vector ETV
attr interpolationmode sample-hold
attr recordingmode vector
attr source receptionStateChanged
attr title "Radio reception state"
vector 55 manets.nodoFijo1.wlan[0].radio transmissionState:vector ETV
attr interpolationmode sample-hold
attr recordingmode vector
attr source transmissionStateChanged
attr title "Radio transmission state"
vector 56 manets.nodoFijo2.wlan[0].radio receptionState:vector ETV
attr interpolationmode sample-hold
attr recordingmode vector
attr source receptionStateChanged
attr title "Radio reception state"
vector 57 manets.nodoFijo2.wlan[0].radio transmissionState:vector ETV
attr interpolationmode sample-hold
attr recordingmode vector
attr source transmissionStateChanged
attr title "Radio transmission state"
vector 58 manets.nodoMovil[0].wlan[0].radio receptionState:vector ETV
attr interpolationmode sample-hold
attr recordingmode vector
attr source receptionStateChanged
attr title "Radio reception state"
vector 59 manets.nodoMovil[0].wlan[0].radio transmissionState:vector ETV
attr interpolationmode sample-hold
attr recordingmode vector
attr source transmissionStateChanged
attr title "Radio transmission state"
vector 60 manets.nodoMovil[1].wlan[0].radio receptionState:vector ETV
attr interpolationmode sample-hold
attr recordingmode vector
attr source receptionStateChanged
attr title "Radio reception state"
vector 61 manets.nodoMovil[1].wlan[0].radio transmissionState:vector ETV
attr interpolationmode sample-hold
attr recordingmode vector
attr source transmissionStateChanged
attr title "Radio transmission state"
vector 62 manets.nodoMovil[2].wlan[0].radio receptionState:vector ETV
attr interpolationmode sample-hold
attr recordingmode vector
attr source receptionStateChanged
attr title "Radio reception state"
vector 63 manets.nodoMovil[2].wlan[0].radio transmissionState:vector ETV
attr interpolationmode sample-hold
attr recordingmode vector
attr source transmissionStateChanged
attr title "Radio transmission state"
vector 64 manets.nodoMovil[3].wlan[0].radio receptionState:vector ETV
attr interpolationmode sample-hold
attr recordingmode vector
attr source receptionStateChanged
attr title "Radio reception state"
vector 65 manets.nodoMovil[3].wlan[0].radio transmissionState:vector ETV
attr interpolationmode sample-hold
attr recordingmode vector
attr source transmissionStateChanged
attr title "Radio transmission state"
vector 66 manets.nodoMovil[4].wlan[0].radio receptionState:vector ETV
attr interpolationmode sample-hold
attr recordingmode vector
attr source receptionStateChanged
attr title "Radio reception state"
vector 67 manets.nodoMovil[4].wlan[0].radio transmissionState:vector ETV
attr interpolationmode sample-hold
attr recordingmode vector
attr source transmissionStateChanged
attr title "Radio transmission state"
vector 68 manets.nodoMovil[5].wlan[0].radio receptionState:vector ETV
attr interpolationmode sample-hold
attr recordingmode vector
attr source receptionStateChanged
attr title "Radio reception state"
vector 69 manets.nodoMovil[5].wlan[0].radio transmissionState:vector ETV
attr interpolationmode sample-hold
attr recordingmode vector
attr source transmissionStateChanged
attr title "Radio transmission state"
vector 70 manets.nodoMovil[6].wlan[0].radio receptionState:vector ETV
attr interpolationmode sample-hold
attr recordingmode vector
attr source receptionStateChanged
attr title "Radio reception state"
vector 71 manets.nodoMovil[6].wlan[0].radio transmissionState:vector ETV
attr interpolationmode sample-hold
attr recordingmode vector
attr source transmissionStateChanged
attr title "Radio transmission state"
vector 72 manets.nodoFijo1.app[0] packetSent:vector(packetBytes) ETV
attr interpolationmode none
attr recordingmode vector(packetBytes)
attr source packetSent
attr title "packets sent, packetBytes"
vector 73 manets.nodoFijo1.udp packetSent:vector(packetBytes) ETV
attr interpolationmode none
attr recordingmode vector(packetBytes)
attr source packetSent
attr title "packets sent, packetBytes"
vector 74 manets.nodoFijo1.ipv4.arp arpRequestSent:vector(packetBytes) ETV
attr recordingmode vector(packetBytes)
attr source arpRequestSent
attr title "ARP request sent, packetBytes"
vector 75 manets.nodoFijo1.wlan[0].queue incomingPacketLengths:vector ETV
attr interpolationmode none
attr recordingmode vector
attr source packetLength(packetPushStarted)
attr title "incoming packet lengths"
attr unit b
vector 76 manets.nodoFijo1.wlan[0].queue incomingDataRate:vector ETV
attr interpolationmode linear
attr recordingmode vector
attr source throughput(packetPushStarted)
attr title "incoming datarate"
attr unit bps
vector 77 manets.nodoFijo1.wlan[0].queue queueingTime:vector ETV
attr interpolationmode none
attr recordingmode vector
attr source queueingTime(packetPulled)
attr title "queueing times"
attr unit s
vector 78 manets.nodoFijo1.wlan[0].queue outgoingPacketLengths:vector ETV
attr interpolationmode none
attr recordingmode vector
attr source packetLength(packetPulled)
attr title "outgoing packet lengths"
attr unit b
vector 79 manets.nodoFijo1.wlan[0].queue outgoingDataRate:vector ETV
attr interpolationmode linear
attr recordingmode vector
attr source throughput(packetPulled)
attr title "outgoing datarate"
attr unit bps
vector 80 manets.nodoFijo1.wlan[0].mac rcvdPkFromHl:vector(packetBytes) ETV
attr interpolationmode none
attr recordingmode vector(packetBytes)
attr source packetReceivedFromUpper
attr title "packets received from higher layer, packetBytes"
vector 81 manets.nodoFijo1.wlan[0].mac sentDownPk:vector(packetBytes) ETV
attr interpolationmode none
attr recordingmode vector(packetBytes)
attr source packetSentToLower
attr title "packets sent to lower layer, packetBytes"
vector 82 manets.nodoMovil[3].wlan[0].mac rcvdPkFromLl:vector(packetBytes) ETV
attr interpolationmode none
attr recordingmode vector(packetBytes)
attr source packetReceivedFromLower
attr title "packets received from lower layer, packetBytes"
vector 83 manets.nodoMovil[3].wlan[0].mac passedUpPk:vector(packetBytes) ETV
attr interpolationmode none
attr recordingmode vector(packetBytes)
attr source packetSentToUpper
attr title "packets passed to higher layer, packetBytes"
vector 84 manets.nodoMovil[5].wlan[0].mac rcvdPkFromLl:vector(packetBytes) ETV
attr interpolationmode none
attr recordingmode vector(packetBytes)
attr source packetReceivedFromLower
attr title "packets received from lower layer, packetBytes"
vector 85 manets.nodoMovil[5].wlan[0].mac passedUpPk:vector(packetBytes) ETV
attr interpolationmode none
attr recordingmode vector(packetBytes)
attr source packetSentToUpper
attr title "packets passed to higher layer, packetBytes"
vector 86 manets.nodoMovil[2].wlan[0].mac rcvdPkFromLl:vector(packetBytes) ETV
attr interpolationmode none
attr recordingmode vector(packetBytes)
attr source packetReceivedFromLower
attr title "packets received from lower layer, packetBytes"
vector 87 manets.nodoMovil[2].wlan[0].mac passedUpPk:vector(packetBytes) ETV
attr interpolationmode none
attr recordingmode vector(packetBytes)
attr source packetSentToUpper
attr title "packets passed to higher layer, packetBytes"
0	24386 56 0 357 0 5 6 0 0 0 0
1	24442 56 0 357 0 5 6 0 0 0 0
2	24498 9 0 0 0 0 1 0 0 0 0
3	24507 9 0 0 0 0 1 0 0 0 0
4	24516 9 0 0 0 0 1 0 0 0 0
5	24525 45 0 0 0 0 5 0 0 0 0
6	24570 45 0 0 0 0 5 0 0 0 0
7	24615 9 0 0 0 0 1 0 0 0 0
8	24624 9 0 0 0 0 1 0 0 0 0
9	24633 9 0 0 0 0 1 0 0 0 0
10	24642 50 0 0 0 0 5 0 0 0 0
11	24692 50 0 0 0 0 5 0 0 0 0
12	24742 10 0 0 0 0 1 0 0 0 0
13	24752 10 0 0 0 0 1 0 0 0 0
14	24762 10 0 0 0 0 1 0 0 0 0
15	24772 50 0 0 0 0 5 0 0 0 0
16	24822 50 0 0 0 0 5 0 0 0 0
17	24872 10 0 0 0 0 1 0 0 0 0
18	24882 10 0 0 0 0 1 0 0 0 0
19	24892 10 0 0 0 0 1 0 0 0 0
20	24902 50 0 0 0 0 5 0 0 0 0
21	24952 50 0 0 0 0 5 0 0 0 0
22	25002 10 0 0 0 0 1 0 0 0 0
23	25012 10 0 0 0 0 1 0 0 0 0
24	25022 10 0 0 0 0 1 0 0 0 0
25	25032 50 0 0 0 0 5 0 0 0 0
26	25082 50 0 0 0 0 5 0 0 0 0
27	25132 10 0 0 0 0 1 0 0 0 0
28	25142 10 0 0 0 0 1 0 0 0 0
29	25152 10 0 0 0 0 1 0 0 0 0
30	25162 50 0 0 0 0 5 0 0 0 0
31	25212 50 0 0 0 0 5 0 0 0 0
32	25262 10 0 0 0 0 1 0 0 0 0
33	25272 10 0 0 0 0 1 0 0 0 0
34	25282 10 0 0 0 0 1 0 0 0 0
35	25292 50 0 0 0 0 5 0 0 0 0
36	25342 50 0 0 0 0 5 0 0 0 0
37	25392 10 0 0 0 0 1 0 0 0 0
38	25402 10 0 0 0 0 1 0 0 0 0
39	25412 10 0 0 0 0 1 0 0 0 0
40	25422 50 0 0 0 0 5 0 0 0 0
41	25472 50 0 0 0 0 5 0 0 0 0
42	25522 10 0 0 0 0 1 0 0 0 0
43	25532 10 0 0 0 0 1 0 0 0 0
44	25542 10 0 0 0 0 1 0 0 0 0
45	25552 30 0 0 0 0 3 0 4 4 16
46	25582 30 0 0 0 0 3 0 4 4 16
47	25612 30 0 0 0 0 3 0 4 4 16
48	25642 30 0 0 0 0 3 0 4 4 16
49	25672 30 0 0 0 0 3 0 4 4 16
50	25702 30 0 0 0 0 3 0 4 4 16
51	25732 30 0 0 0 0 3 0 4 4 16
52	25762 30 0 0 0 0 3 0 4 4 16
53	25792 30 0 0 0 0 3 0 4 4 16
54	25822 10 0 0 0 0 1 1 1 1 1
55	25832 40 0 367 0 5.00024 3 1 2 4 6
56	25872 10 0 0 0 0 1 1 1 1 1
57	25882 10 0 0 0 0 1 1 1 1 1
58	25892 10 0 0 0 0 1 1 1 1 1
59	25902 10 0 0 0 0 1 1 1 1 1
60	25912 10 0 0 0 0 1 1 1 1 1
61	25922 10 0 0 0 0 1 1 1 1 1
62	25932 60 0 374 0 5.000241115484 3 1 3 5 11
63	25992 10 0 0 0 0 1 1 1 1 1
64	26002 60 0 368 0 5.000240389503 3 1 3 5 11
65	26062 10 0 0 0 0 1 1 1 1 1
66	26072 10 0 0 0 0 1 1 1 1 1
67	26082 10 0 0 0 0 1 1 1 1 1
68	26092 60 0 371 0 5.000240796281 3 1 3 5 11
69	26152 10 0 0 0 0 1 1 1 1 1
70	26162 10 0 0 0 0 1 1 1 1 1
71	26172 10 0 0 0 0 1 1 1 1 1
72	26182 60 349 440 5 5.75 4 50 50 200 10000
73	26242 44 355 422 5 5.5 3 58 58 174 10092
74	26286 13 356 356 5 5 1 28 28 28 784
75	26299 14 357 357 5 5 1 224 224 224 50176
76	26313 690 357 357 0.1 5 50 0 0 0 0
77	27003 12 357 357 5 5 1 0 0 0 0
78	27015 14 357 357 5 5 1 224 224 224 50176
79	27029 690 357 357 0.1 5 50 0 0 0 0
80	27719 13 357 357 5 5 1 28 28 28 784
81	27732 13 357 357 5 5 1 48 48 48 2304
82	27745 26 369 369 5.000240389503 5.000240389503 1 48 48 48 2304
83	27771 26 369 369 5.000240389503 5.000240389503 1 28 28 28 784
84	27797 26 372 372 5.000240796281 5.000240796281 1 48 48 48 2304
85	27823 26 372 372 5.000240796281 5.000240796281 1 28 28 28 784
86	27849 26 375 375 5.000241115484 5.000241115484 1 48 48 48 2304
87	27875 26 375 375 5.000241115484 5.000241115484 1 28 28 28 784
vector 88 manets.nodoFijo1.app[0] throughput:vector ETV
attr recordingmode vector
attr source throughput(packetReceived)
attr title throughput
attr unit bps
vector 89 manets.nodoFijo2.wlan[0].queue outgoingDataRate:vector ETV
attr interpolationmode linear
attr recordingmode vector
attr source throughput(packetPulled)
attr title "outgoing datarate"
attr unit bps
vector 90 manets.nodoFijo2.wlan[0].queue incomingDataRate:vector ETV
attr interpolationmode linear
attr recordingmode vector
attr source throughput(packetPushStarted)
attr title "incoming datarate"
attr unit bps
vector 91 manets.nodoMovil[0].wlan[0].queue outgoingDataRate:vector ETV
attr interpolationmode linear
attr recordingmode vector
attr source throughput(packetPulled)
attr title "outgoing datarate"
attr unit bps
vector 92 manets.nodoMovil[0].wlan[0].queue incomingDataRate:vector ETV
attr interpolationmode linear
attr recordingmode vector
attr source throughput(packetPushStarted)
attr title "incoming datarate"
attr unit bps
vector 93 manets.nodoMovil[1].wlan[0].queue outgoingDataRate:vector ETV
attr interpolationmode linear
attr recordingmode vector
attr source throughput(packetPulled)
attr title "outgoing datarate"
attr unit bps
vector 94 manets.nodoMovil[1].wlan[0].queue incomingDataRate:vector ETV
attr interpolationmode linear
attr recordingmode vector
attr source throughput(packetPushStarted)
attr title "incoming datarate"
attr unit bps
vector 95 manets.nodoMovil[2].wlan[0].queue outgoingDataRate:vector ETV
attr interpolationmode linear
attr recordingmode vector
attr source throughput(packetPulled)
attr title "outgoing datarate"
attr unit bps
vector 96 manets.nodoMovil[2].wlan[0].queue incomingDataRate:vector ETV
attr interpolationmode linear
attr recordingmode vector
attr source throughput(packetPushStarted)
attr title "incoming datarate"
attr unit bps
vector 97 manets.nodoMovil[3].wlan[0].queue outgoingDataRate:vector ETV
attr interpolationmode linear
attr recordingmode vector
attr source throughput(packetPulled)
attr title "outgoing datarate"
attr unit bps
vector 98 manets.nodoMovil[3].wlan[0].queue incomingDataRate:vector ETV
attr interpolationmode linear
attr recordingmode vector
attr source throughput(packetPushStarted)
attr title "incoming datarate"
attr unit bps
vector 99 manets.nodoMovil[4].wlan[0].queue outgoingDataRate:vector ETV
attr interpolationmode linear